                         Program Version 5.0.0 -  RELEASE  -
|  1> !wB97X-V def2-TZVP NEB-TS
|  2> %NEB NEB_END_XYZFILE "prod.xyz" END
|  3> %pal
|  4> nprocs 40
|  5> end
|  6> * xyzfile 0 1 react.xyz
|  7>
|  8>
|  9>                          ****END OF INPUT****
 Total Charge           Charge          ....    0
 Multiplicity           Mult            ....    1
 Number of Electrons    NEL             ....   66
FINAL SINGLE POINT ENERGY      -422.010510033306
FINAL SINGLE POINT ENERGY      -422.010482977997
FINAL SINGLE POINT ENERGY      -422.010583145637
FINAL SINGLE POINT ENERGY      -422.010617314211
FINAL SINGLE POINT ENERGY      -422.010632598681
FINAL SINGLE POINT ENERGY      -422.010629296754
FINAL SINGLE POINT ENERGY      -422.010634029235

CARTESIAN COORDINATES (ANGSTROEM)
---------------------------------
  C     -0.699202   -2.054657   -2.009530
  C      0.296951   -2.699402   -1.363336
  C      0.235673   -0.571113   -0.711308
  C      0.911146   -1.724934   -0.505147
  C      0.378881    0.818202   -0.142991
  O      1.046641    1.647874   -0.708710
  O     -0.755601   -0.751410   -1.621527
  H     -1.428316   -2.357826   -2.744467
  H      0.570470   -3.737529   -1.478212
  H      1.750151   -1.867021    0.160175
  C     -0.363395    1.083475    1.145557
  C     -0.159068    2.488854    1.689650
  H     -0.047664    0.315253    1.863743
  H     -1.422865    0.869314    0.949077
  H      0.898421    2.678323    1.887750
  H     -0.716477    2.624769    2.619686
  H     -0.495747    3.237827    0.969590

FINAL SINGLE POINT ENERGY      -422.010631209047
                    ***********************HURRAY********************
 Multiplicity           Mult            ....    1
 Number of Electrons    NEL             ....   66
 Basis Dimension        Dim             ....  327

ORBITAL ENERGIES
----------------

  NO   OCC          E(Eh)            E(eV)
   0   2.0000     -19.291664      -524.9529
   1   2.0000     -19.216785      -522.9153
   2   2.0000     -10.374606      -282.3074
   3   2.0000     -10.331839      -281.1436
   4   2.0000     -10.325930      -280.9828
   5   2.0000     -10.286488      -279.9096
   6   2.0000     -10.278722      -279.6982
   7   2.0000     -10.277087      -279.6537
   8   2.0000     -10.263923      -279.2955
   9   2.0000      -1.257415       -34.2160
  10   2.0000      -1.189774       -32.3754
  11   2.0000      -0.945038       -25.7158
  12   2.0000      -0.930075       -25.3086
  13   2.0000      -0.894368       -24.3370
  14   2.0000      -0.798855       -21.7379
  15   2.0000      -0.734023       -19.9738
  16   2.0000      -0.718897       -19.5622
  17   2.0000      -0.676980       -18.4216
  18   2.0000      -0.631774       -17.1915
  19   2.0000      -0.596383       -16.2284
  20   2.0000      -0.587136       -15.9768
  21   2.0000      -0.581809       -15.8318
  22   2.0000      -0.556106       -15.1324
  23   2.0000      -0.535326       -14.5670
  24   2.0000      -0.517164       -14.0728
  25   2.0000      -0.501096       -13.6355
  26   2.0000      -0.494130       -13.4460
  27   2.0000      -0.487786       -13.2733
  28   2.0000      -0.477234       -12.9862
  29   2.0000      -0.456558       -12.4236
  30   2.0000      -0.392707       -10.6861
  31   2.0000      -0.371406       -10.1065
  32   2.0000      -0.334018        -9.0891
  33   0.0000       0.055760         1.5173
  34   0.0000       0.083309         2.2670
  35   0.0000       0.108839         2.9617
  36   0.0000       0.140832         3.8322
  37   0.0000       0.143174         3.8960

-------
TIMINGS
-------

FINAL SINGLE POINT ENERGY      -422.010632141759
                    ***********************HURRAY************************

DIPOLE MOMENT
-------------
                                X             Y             Z
Electronic contribution:      1.01720      -3.45830      -6.68152
Nuclear contribution   :     -1.48670       2.63109       7.32520
                        -----------------------------------------
Total Dipole Moment    :     -0.46950      -0.82721       0.64368
                        -----------------------------------------
Magnitude (a.u.)       :      1.14849
Magnitude (Debye)      :      2.91923

Rotational constants in cm-1:     0.146910     0.030595     0.030337
Rotational constants in MHz :  4404.254886   917.208976   909.477347

                             ****ORCA TERMINATED NORMALLY****
TOTAL RUN TIME: 0 days 6 hours 41 minutes 8 seconds 176 msec
