                         Program Version 5.0.0 -  RELEASE  -
|  1> !wB97X-V def2-TZVP NEB-TS
|  2> %NEB NEB_END_XYZFILE "prod.xyz" END
|  3> %pal
|  4> nprocs 40
|  5> end
|  6> * xyzfile 0 1 react.xyz
|  7>
|  8>
|  9>                          ****END OF INPUT****
 Total Charge           Charge          ....    0
 Multiplicity           Mult            ....    1
 Number of Electrons    NEL             ....   50
 Basis Dimension        Dim             ....  241

ORBITAL ENERGIES
----------------

  NO   OCC          E(Eh)            E(eV)
   0   2.0000     -19.339834      -526.2636
   1   2.0000     -19.308420      -525.4088
   2   2.0000     -10.377276      -282.3800
   3   2.0000     -10.332719      -281.1676
   4   2.0000     -10.325806      -280.9795
   5   2.0000     -10.304796      -280.4077
   6   2.0000     -10.278696      -279.6975
   7   2.0000      -1.276911       -34.7465
   8   2.0000      -1.054258       -28.6878
   9   2.0000      -0.977045       -26.5867
  10   2.0000      -0.928392       -25.2628
  11   2.0000      -0.801422       -21.8078
  12   2.0000      -0.752558       -20.4781
  13   2.0000      -0.705809       -19.2060
  14   2.0000      -0.651126       -17.7180
  15   2.0000      -0.604553       -16.4507
  16   2.0000      -0.562725       -15.3125
  17   2.0000      -0.547939       -14.9102
  18   2.0000      -0.515641       -14.0313
  19   2.0000      -0.506528       -13.7833
  20   2.0000      -0.460121       -12.5205
  21   2.0000      -0.460043       -12.5184
  22   2.0000      -0.423963       -11.5366
  23   2.0000      -0.375843       -10.2272
  24   2.0000      -0.318394        -8.6639
  25   0.0000      -0.150233        -4.0880
  26   0.0000      -0.031895        -0.8679
  27   0.0000       0.094803         2.5797
  28   0.0000       0.123482         3.3601
  29   0.0000       0.136709         3.7200

-------
TIMINGS
-------

FINAL SINGLE POINT ENERGY      -343.005106089486
FINAL SINGLE POINT ENERGY      -343.004938435073
FINAL SINGLE POINT ENERGY      -343.004783627083
FINAL SINGLE POINT ENERGY      -343.004639554682
FINAL SINGLE POINT ENERGY      -343.004504264993
FINAL SINGLE POINT ENERGY      -343.004377581724
FINAL SINGLE POINT ENERGY      -343.004260475764
FINAL SINGLE POINT ENERGY      -343.004159664282
FINAL SINGLE POINT ENERGY      -343.004079764976
FINAL SINGLE POINT ENERGY      -343.004019393606
FINAL SINGLE POINT ENERGY      -342.998680624040
FINAL SINGLE POINT ENERGY      -342.997919301052
FINAL SINGLE POINT ENERGY      -342.997219789700
FINAL SINGLE POINT ENERGY      -342.996730929520
FINAL SINGLE POINT ENERGY      -342.995730840931
FINAL SINGLE POINT ENERGY      -342.995414536412
FINAL SINGLE POINT ENERGY      -342.994752850370
FINAL SINGLE POINT ENERGY      -342.993947687235
FINAL SINGLE POINT ENERGY      -342.992817142544

CARTESIAN COORDINATES (ANGSTROEM)
---------------------------------
  C      0.071280   -1.087250   -1.720004
  C      0.092141   -1.890813   -0.615089
  C     -0.090499    0.353178   -0.078558
  C     -0.014016   -0.880678    0.500517
  C     -0.283338    1.630418    0.430419
  O      0.230988    5.591524    3.043723
  O      0.001474    0.197989   -1.452250
  H      0.167766   -1.353895   -2.773434
  H      0.055470   -2.945225   -0.409564
  H      0.029970   -1.090043    1.555070
  H     -0.261236    1.474796    1.519169

FINAL SINGLE POINT ENERGY      -342.991777582208

DIPOLE MOMENT
-------------
                                X             Y             Z
Electronic contribution:      0.50881       4.28188       0.31464
Nuclear contribution   :     -0.07494      -6.19545      -0.35991
                        -----------------------------------------
Total Dipole Moment    :      0.43387      -1.91357      -0.04526
                        -----------------------------------------
Magnitude (a.u.)       :      1.96266
Magnitude (Debye)      :      4.98868

Rotational constants in cm-1:     0.293531     0.022357     0.020868
Rotational constants in MHz :  8799.827315   670.244638   625.599793

                             ****ORCA TERMINATED NORMALLY****
TOTAL RUN TIME: 0 days 23 hours 22 minutes 9 seconds 916 msec
