                         Program Version 5.0.0 -  RELEASE  -
|  1> !wB97X-V def2-TZVP NEB-TS
|  2> %NEB NEB_END_XYZFILE "prod.xyz" END
|  3> %pal
|  4> nprocs 40
|  5> end
|  6> * xyzfile 0 1 react.xyz
|  7>
|  8>
|  9>                          ****END OF INPUT****
 Total Charge           Charge          ....    0
 Multiplicity           Mult            ....    1
 Number of Electrons    NEL             ....   50
FINAL SINGLE POINT ENERGY      -323.507425946852
FINAL SINGLE POINT ENERGY      -323.507459757249
FINAL SINGLE POINT ENERGY      -323.507566193143
FINAL SINGLE POINT ENERGY      -323.507659825703
FINAL SINGLE POINT ENERGY      -323.507623379462
FINAL SINGLE POINT ENERGY      -323.507632842121
FINAL SINGLE POINT ENERGY      -323.507644783208

CARTESIAN COORDINATES (ANGSTROEM)
---------------------------------
  O      2.695710   -0.703940   -0.933761
  N     -0.483053   -0.948211   -0.162349
  C      0.589290   -0.112400    0.009377
  C      0.110032    1.161360    0.177776
  C     -1.642624   -0.218610   -0.128607
  C     -1.309757    1.091809    0.087628
  C      1.990203   -0.635343    0.038112
  H     -0.422922   -1.930273   -0.369561
  H      0.710134    2.043600    0.347849
  H     -2.602600   -0.693423   -0.264973
  H     -2.003139    1.915611    0.172367
  H      2.368725   -0.970180    1.026142

FINAL SINGLE POINT ENERGY      -323.507645809449
                    ***********************HURRAY********************
 Multiplicity           Mult            ....    1
 Number of Electrons    NEL             ....   50
 Basis Dimension        Dim             ....  247

ORBITAL ENERGIES
----------------

  NO   OCC          E(Eh)            E(eV)
   0   2.0000     -19.228408      -523.2316
   1   2.0000     -14.468509      -393.7082
   2   2.0000     -10.376357      -282.3550
   3   2.0000     -10.305310      -280.4217
   4   2.0000     -10.298164      -280.2273
   5   2.0000     -10.264755      -279.3182
   6   2.0000     -10.261002      -279.2161
   7   2.0000      -1.197335       -32.5811
   8   2.0000      -1.127005       -30.6674
   9   2.0000      -0.918173       -24.9848
  10   2.0000      -0.885149       -24.0861
  11   2.0000      -0.763926       -20.7875
  12   2.0000      -0.720042       -19.5933
  13   2.0000      -0.700057       -19.0495
  14   2.0000      -0.655563       -17.8388
  15   2.0000      -0.587999       -16.0003
  16   2.0000      -0.558563       -15.1993
  17   2.0000      -0.554189       -15.0802
  18   2.0000      -0.534241       -14.5374
  19   2.0000      -0.526854       -14.3364
  20   2.0000      -0.501879       -13.6568
  21   2.0000      -0.487174       -13.2567
  22   2.0000      -0.378612       -10.3026
  23   2.0000      -0.356914        -9.7121
  24   2.0000      -0.320575        -8.7233
  25   0.0000       0.041198         1.1210
  26   0.0000       0.101123         2.7517
  27   0.0000       0.109070         2.9679
  28   0.0000       0.141061         3.8385
  29   0.0000       0.153971         4.1898

-------
TIMINGS
-------

FINAL SINGLE POINT ENERGY      -323.507646582470
                    ***********************HURRAY************************

DIPOLE MOMENT
-------------
                                X             Y             Z
Electronic contribution:      2.59063      -1.32479      -0.96087
Nuclear contribution   :     -3.33821       0.75723       1.53747
                        -----------------------------------------
Total Dipole Moment    :     -0.74758      -0.56756       0.57660
                        -----------------------------------------
Magnitude (a.u.)       :      1.10157
Magnitude (Debye)      :      2.79998

Rotational constants in cm-1:     0.261488     0.065109     0.055121
Rotational constants in MHz :  7839.201770  1951.917325  1652.498142

                             ****ORCA TERMINATED NORMALLY****
TOTAL RUN TIME: 0 days 4 hours 11 minutes 52 seconds 565 msec
